                                                                
version 2
run Half_framesize_BE_and_TT-0-20150122-01:12:48-10724
attr configname Half_framesize_BE_and_TT
attr datetime 20150122-01:12:48
attr experiment Half_framesize_BE_and_TT
attr inifile omnetpp.ini
attr iterationvars ""
attr iterationvars2 $repetition=0
attr measurement ""
attr network large_network
attr processid 10724
attr repetition 0
attr replication #0
attr resultdir results
attr runnumber 0
attr seedset 0

vector 112  large_network.switch_1.phy[0].shaper  beQueueLength:vector  ETV
attr interpolationmode  sample-hold
attr title  "BE-Queue Length, vector"
vector 1344  large_network.switch_1.phy[0].shaper  rc0QueueLength:vector  ETV
attr interpolationmode  sample-hold
attr title  "RC-Queue Length (rc0QueueLength)"
vector 1345  large_network.switch_1.phy[0].shaper  rc1QueueLength:vector  ETV
attr interpolationmode  sample-hold
attr title  "RC-Queue Length (rc1QueueLength)"
vector 1346  large_network.switch_1.phy[0].shaper  rc2QueueLength:vector  ETV
attr interpolationmode  sample-hold
attr title  "RC-Queue Length (rc2QueueLength)"
vector 1347  large_network.switch_1.phy[0].shaper  rc3QueueLength:vector  ETV
attr interpolationmode  sample-hold
attr title  "RC-Queue Length (rc3QueueLength)"
vector 1348  large_network.switch_1.phy[0].shaper  rc4QueueLength:vector  ETV
attr interpolationmode  sample-hold
attr title  "RC-Queue Length (rc4QueueLength)"
vector 1349  large_network.switch_1.phy[0].shaper  rc5QueueLength:vector  ETV
attr interpolationmode  sample-hold
attr title  "RC-Queue Length (rc5QueueLength)"
vector 1350  large_network.switch_1.phy[0].shaper  rc6QueueLength:vector  ETV
attr interpolationmode  sample-hold
attr title  "RC-Queue Length (rc6QueueLength)"
vector 1351  large_network.switch_1.phy[0].shaper  rc7QueueLength:vector  ETV
attr interpolationmode  sample-hold
attr title  "RC-Queue Length (rc7QueueLength)"
vector 1352  large_network.switch_1.phy[0].shaper  rc8QueueLength:vector  ETV
attr interpolationmode  sample-hold
attr title  "RC-Queue Length (rc8QueueLength)"
vector 1353  large_network.switch_1.phy[0].shaper  rc9QueueLength:vector  ETV
attr interpolationmode  sample-hold
attr title  "RC-Queue Length (rc9QueueLength)"
vector 113  large_network.switch_1.phy[0].shaper  pcfQueueLength:vector  ETV
attr interpolationmode  sample-hold
attr title  "PCF-Queue Length, vector"
vector 114  large_network.switch_1.phy[0].shaper  ttQueueLength:vector  ETV
attr interpolationmode  sample-hold
attr title  "TT-Queue Length, vector"
vector 130  large_network.switch_1.phy[1].shaper  beQueueLength:vector  ETV
attr interpolationmode  sample-hold
attr title  "BE-Queue Length, vector"
vector 1354  large_network.switch_1.phy[1].shaper  rc0QueueLength:vector  ETV
attr interpolationmode  sample-hold
attr title  "RC-Queue Length (rc0QueueLength)"
vector 1355  large_network.switch_1.phy[1].shaper  rc1QueueLength:vector  ETV
attr interpolationmode  sample-hold
attr title  "RC-Queue Length (rc1QueueLength)"
vector 1356  large_network.switch_1.phy[1].shaper  rc2QueueLength:vector  ETV
attr interpolationmode  sample-hold
attr title  "RC-Queue Length (rc2QueueLength)"
vector 1357  large_network.switch_1.phy[1].shaper  rc3QueueLength:vector  ETV
attr interpolationmode  sample-hold
attr title  "RC-Queue Length (rc3QueueLength)"
vector 1358  large_network.switch_1.phy[1].shaper  rc4QueueLength:vector  ETV
attr interpolationmode  sample-hold
attr title  "RC-Queue Length (rc4QueueLength)"
vector 1359  large_network.switch_1.phy[1].shaper  rc5QueueLength:vector  ETV
attr interpolationmode  sample-hold
attr title  "RC-Queue Length (rc5QueueLength)"
vector 1360  large_network.switch_1.phy[1].shaper  rc6QueueLength:vector  ETV
attr interpolationmode  sample-hold
attr title  "RC-Queue Length (rc6QueueLength)"
vector 1361  large_network.switch_1.phy[1].shaper  rc7QueueLength:vector  ETV
attr interpolationmode  sample-hold
attr title  "RC-Queue Length (rc7QueueLength)"
vector 1362  large_network.switch_1.phy[1].shaper  rc8QueueLength:vector  ETV
attr interpolationmode  sample-hold
attr title  "RC-Queue Length (rc8QueueLength)"
vector 1363  large_network.switch_1.phy[1].shaper  rc9QueueLength:vector  ETV
attr interpolationmode  sample-hold
attr title  "RC-Queue Length (rc9QueueLength)"
vector 131  large_network.switch_1.phy[1].shaper  pcfQueueLength:vector  ETV
attr interpolationmode  sample-hold
attr title  "PCF-Queue Length, vector"
vector 132  large_network.switch_1.phy[1].shaper  ttQueueLength:vector  ETV
attr interpolationmode  sample-hold
attr title  "TT-Queue Length, vector"
vector 148  large_network.switch_1.phy[2].shaper  beQueueLength:vector  ETV
attr interpolationmode  sample-hold
attr title  "BE-Queue Length, vector"
vector 1364  large_network.switch_1.phy[2].shaper  rc0QueueLength:vector  ETV
attr interpolationmode  sample-hold
attr title  "RC-Queue Length (rc0QueueLength)"
vector 1365  large_network.switch_1.phy[2].shaper  rc1QueueLength:vector  ETV
attr interpolationmode  sample-hold
attr title  "RC-Queue Length (rc1QueueLength)"
vector 1366  large_network.switch_1.phy[2].shaper  rc2QueueLength:vector  ETV
attr interpolationmode  sample-hold
attr title  "RC-Queue Length (rc2QueueLength)"
vector 1367  large_network.switch_1.phy[2].shaper  rc3QueueLength:vector  ETV
attr interpolationmode  sample-hold
attr title  "RC-Queue Length (rc3QueueLength)"
vector 1368  large_network.switch_1.phy[2].shaper  rc4QueueLength:vector  ETV
attr interpolationmode  sample-hold
attr title  "RC-Queue Length (rc4QueueLength)"
vector 1369  large_network.switch_1.phy[2].shaper  rc5QueueLength:vector  ETV
attr interpolationmode  sample-hold
attr title  "RC-Queue Length (rc5QueueLength)"
vector 1370  large_network.switch_1.phy[2].shaper  rc6QueueLength:vector  ETV
attr interpolationmode  sample-hold
attr title  "RC-Queue Length (rc6QueueLength)"
vector 1371  large_network.switch_1.phy[2].shaper  rc7QueueLength:vector  ETV
attr interpolationmode  sample-hold
attr title  "RC-Queue Length (rc7QueueLength)"
vector 1372  large_network.switch_1.phy[2].shaper  rc8QueueLength:vector  ETV
attr interpolationmode  sample-hold
attr title  "RC-Queue Length (rc8QueueLength)"
vector 1373  large_network.switch_1.phy[2].shaper  rc9QueueLength:vector  ETV
attr interpolationmode  sample-hold
attr title  "RC-Queue Length (rc9QueueLength)"
vector 149  large_network.switch_1.phy[2].shaper  pcfQueueLength:vector  ETV
attr interpolationmode  sample-hold
attr title  "PCF-Queue Length, vector"
vector 150  large_network.switch_1.phy[2].shaper  ttQueueLength:vector  ETV
attr interpolationmode  sample-hold
attr title  "TT-Queue Length, vector"
vector 166  large_network.switch_1.phy[3].shaper  beQueueLength:vector  ETV
attr interpolationmode  sample-hold
attr title  "BE-Queue Length, vector"
vector 1374  large_network.switch_1.phy[3].shaper  rc0QueueLength:vector  ETV
attr interpolationmode  sample-hold
attr title  "RC-Queue Length (rc0QueueLength)"
vector 1375  large_network.switch_1.phy[3].shaper  rc1QueueLength:vector  ETV
attr interpolationmode  sample-hold
attr title  "RC-Queue Length (rc1QueueLength)"
vector 1376  large_network.switch_1.phy[3].shaper  rc2QueueLength:vector  ETV
attr interpolationmode  sample-hold
attr title  "RC-Queue Length (rc2QueueLength)"
vector 1377  large_network.switch_1.phy[3].shaper  rc3QueueLength:vector  ETV
attr interpolationmode  sample-hold
attr title  "RC-Queue Length (rc3QueueLength)"
vector 1378  large_network.switch_1.phy[3].shaper  rc4QueueLength:vector  ETV
attr interpolationmode  sample-hold
attr title  "RC-Queue Length (rc4QueueLength)"
vector 1379  large_network.switch_1.phy[3].shaper  rc5QueueLength:vector  ETV
attr interpolationmode  sample-hold
attr title  "RC-Queue Length (rc5QueueLength)"
vector 1380  large_network.switch_1.phy[3].shaper  rc6QueueLength:vector  ETV
attr interpolationmode  sample-hold
attr title  "RC-Queue Length (rc6QueueLength)"
vector 1381  large_network.switch_1.phy[3].shaper  rc7QueueLength:vector  ETV
attr interpolationmode  sample-hold
attr title  "RC-Queue Length (rc7QueueLength)"
vector 1382  large_network.switch_1.phy[3].shaper  rc8QueueLength:vector  ETV
attr interpolationmode  sample-hold
attr title  "RC-Queue Length (rc8QueueLength)"
vector 1383  large_network.switch_1.phy[3].shaper  rc9QueueLength:vector  ETV
attr interpolationmode  sample-hold
attr title  "RC-Queue Length (rc9QueueLength)"
vector 167  large_network.switch_1.phy[3].shaper  pcfQueueLength:vector  ETV
attr interpolationmode  sample-hold
attr title  "PCF-Queue Length, vector"
vector 168  large_network.switch_1.phy[3].shaper  ttQueueLength:vector  ETV
attr interpolationmode  sample-hold
attr title  "TT-Queue Length, vector"
vector 184  large_network.switch_1.phy[4].shaper  beQueueLength:vector  ETV
attr interpolationmode  sample-hold
attr title  "BE-Queue Length, vector"
vector 1384  large_network.switch_1.phy[4].shaper  rc0QueueLength:vector  ETV
attr interpolationmode  sample-hold
attr title  "RC-Queue Length (rc0QueueLength)"
vector 1385  large_network.switch_1.phy[4].shaper  rc1QueueLength:vector  ETV
attr interpolationmode  sample-hold
attr title  "RC-Queue Length (rc1QueueLength)"
vector 1386  large_network.switch_1.phy[4].shaper  rc2QueueLength:vector  ETV
attr interpolationmode  sample-hold
attr title  "RC-Queue Length (rc2QueueLength)"
vector 1387  large_network.switch_1.phy[4].shaper  rc3QueueLength:vector  ETV
attr interpolationmode  sample-hold
attr title  "RC-Queue Length (rc3QueueLength)"
vector 1388  large_network.switch_1.phy[4].shaper  rc4QueueLength:vector  ETV
attr interpolationmode  sample-hold
attr title  "RC-Queue Length (rc4QueueLength)"
vector 1389  large_network.switch_1.phy[4].shaper  rc5QueueLength:vector  ETV
attr interpolationmode  sample-hold
attr title  "RC-Queue Length (rc5QueueLength)"
vector 1390  large_network.switch_1.phy[4].shaper  rc6QueueLength:vector  ETV
attr interpolationmode  sample-hold
attr title  "RC-Queue Length (rc6QueueLength)"
vector 1391  large_network.switch_1.phy[4].shaper  rc7QueueLength:vector  ETV
attr interpolationmode  sample-hold
attr title  "RC-Queue Length (rc7QueueLength)"
vector 1392  large_network.switch_1.phy[4].shaper  rc8QueueLength:vector  ETV
attr interpolationmode  sample-hold
attr title  "RC-Queue Length (rc8QueueLength)"
vector 1393  large_network.switch_1.phy[4].shaper  rc9QueueLength:vector  ETV
attr interpolationmode  sample-hold
attr title  "RC-Queue Length (rc9QueueLength)"
vector 185  large_network.switch_1.phy[4].shaper  pcfQueueLength:vector  ETV
attr interpolationmode  sample-hold
attr title  "PCF-Queue Length, vector"
vector 186  large_network.switch_1.phy[4].shaper  ttQueueLength:vector  ETV
attr interpolationmode  sample-hold
attr title  "TT-Queue Length, vector"
vector 349  large_network.switch_2.phy[0].shaper  beQueueLength:vector  ETV
attr interpolationmode  sample-hold
attr title  "BE-Queue Length, vector"
vector 1394  large_network.switch_2.phy[0].shaper  rc0QueueLength:vector  ETV
attr interpolationmode  sample-hold
attr title  "RC-Queue Length (rc0QueueLength)"
vector 1395  large_network.switch_2.phy[0].shaper  rc1QueueLength:vector  ETV
attr interpolationmode  sample-hold
attr title  "RC-Queue Length (rc1QueueLength)"
vector 1396  large_network.switch_2.phy[0].shaper  rc2QueueLength:vector  ETV
attr interpolationmode  sample-hold
attr title  "RC-Queue Length (rc2QueueLength)"
vector 1397  large_network.switch_2.phy[0].shaper  rc3QueueLength:vector  ETV
attr interpolationmode  sample-hold
attr title  "RC-Queue Length (rc3QueueLength)"
vector 1398  large_network.switch_2.phy[0].shaper  rc4QueueLength:vector  ETV
attr interpolationmode  sample-hold
attr title  "RC-Queue Length (rc4QueueLength)"
vector 1399  large_network.switch_2.phy[0].shaper  rc5QueueLength:vector  ETV
attr interpolationmode  sample-hold
attr title  "RC-Queue Length (rc5QueueLength)"
vector 1400  large_network.switch_2.phy[0].shaper  rc6QueueLength:vector  ETV
attr interpolationmode  sample-hold
attr title  "RC-Queue Length (rc6QueueLength)"
vector 1401  large_network.switch_2.phy[0].shaper  rc7QueueLength:vector  ETV
attr interpolationmode  sample-hold
attr title  "RC-Queue Length (rc7QueueLength)"
vector 1402  large_network.switch_2.phy[0].shaper  rc8QueueLength:vector  ETV
attr interpolationmode  sample-hold
attr title  "RC-Queue Length (rc8QueueLength)"
vector 1403  large_network.switch_2.phy[0].shaper  rc9QueueLength:vector  ETV
attr interpolationmode  sample-hold
attr title  "RC-Queue Length (rc9QueueLength)"
vector 350  large_network.switch_2.phy[0].shaper  pcfQueueLength:vector  ETV
attr interpolationmode  sample-hold
attr title  "PCF-Queue Length, vector"
vector 351  large_network.switch_2.phy[0].shaper  ttQueueLength:vector  ETV
attr interpolationmode  sample-hold
attr title  "TT-Queue Length, vector"
vector 367  large_network.switch_2.phy[1].shaper  beQueueLength:vector  ETV
attr interpolationmode  sample-hold
attr title  "BE-Queue Length, vector"
vector 1404  large_network.switch_2.phy[1].shaper  rc0QueueLength:vector  ETV
attr interpolationmode  sample-hold
attr title  "RC-Queue Length (rc0QueueLength)"
vector 1405  large_network.switch_2.phy[1].shaper  rc1QueueLength:vector  ETV
attr interpolationmode  sample-hold
attr title  "RC-Queue Length (rc1QueueLength)"
vector 1406  large_network.switch_2.phy[1].shaper  rc2QueueLength:vector  ETV
attr interpolationmode  sample-hold
attr title  "RC-Queue Length (rc2QueueLength)"
vector 1407  large_network.switch_2.phy[1].shaper  rc3QueueLength:vector  ETV
attr interpolationmode  sample-hold
attr title  "RC-Queue Length (rc3QueueLength)"
vector 1408  large_network.switch_2.phy[1].shaper  rc4QueueLength:vector  ETV
attr interpolationmode  sample-hold
attr title  "RC-Queue Length (rc4QueueLength)"
vector 1409  large_network.switch_2.phy[1].shaper  rc5QueueLength:vector  ETV
attr interpolationmode  sample-hold
attr title  "RC-Queue Length (rc5QueueLength)"
vector 1410  large_network.switch_2.phy[1].shaper  rc6QueueLength:vector  ETV
attr interpolationmode  sample-hold
attr title  "RC-Queue Length (rc6QueueLength)"
vector 1411  large_network.switch_2.phy[1].shaper  rc7QueueLength:vector  ETV
attr interpolationmode  sample-hold
attr title  "RC-Queue Length (rc7QueueLength)"
vector 1412  large_network.switch_2.phy[1].shaper  rc8QueueLength:vector  ETV
attr interpolationmode  sample-hold
attr title  "RC-Queue Length (rc8QueueLength)"
vector 1413  large_network.switch_2.phy[1].shaper  rc9QueueLength:vector  ETV
attr interpolationmode  sample-hold
attr title  "RC-Queue Length (rc9QueueLength)"
vector 368  large_network.switch_2.phy[1].shaper  pcfQueueLength:vector  ETV
attr interpolationmode  sample-hold
attr title  "PCF-Queue Length, vector"
vector 369  large_network.switch_2.phy[1].shaper  ttQueueLength:vector  ETV
attr interpolationmode  sample-hold
attr title  "TT-Queue Length, vector"
vector 385  large_network.switch_2.phy[2].shaper  beQueueLength:vector  ETV
attr interpolationmode  sample-hold
attr title  "BE-Queue Length, vector"
vector 1414  large_network.switch_2.phy[2].shaper  rc0QueueLength:vector  ETV
attr interpolationmode  sample-hold
attr title  "RC-Queue Length (rc0QueueLength)"
vector 1415  large_network.switch_2.phy[2].shaper  rc1QueueLength:vector  ETV
attr interpolationmode  sample-hold
attr title  "RC-Queue Length (rc1QueueLength)"
vector 1416  large_network.switch_2.phy[2].shaper  rc2QueueLength:vector  ETV
attr interpolationmode  sample-hold
attr title  "RC-Queue Length (rc2QueueLength)"
vector 1417  large_network.switch_2.phy[2].shaper  rc3QueueLength:vector  ETV
attr interpolationmode  sample-hold
attr title  "RC-Queue Length (rc3QueueLength)"
vector 1418  large_network.switch_2.phy[2].shaper  rc4QueueLength:vector  ETV
attr interpolationmode  sample-hold
attr title  "RC-Queue Length (rc4QueueLength)"
vector 1419  large_network.switch_2.phy[2].shaper  rc5QueueLength:vector  ETV
attr interpolationmode  sample-hold
attr title  "RC-Queue Length (rc5QueueLength)"
vector 1420  large_network.switch_2.phy[2].shaper  rc6QueueLength:vector  ETV
attr interpolationmode  sample-hold
attr title  "RC-Queue Length (rc6QueueLength)"
vector 1421  large_network.switch_2.phy[2].shaper  rc7QueueLength:vector  ETV
attr interpolationmode  sample-hold
attr title  "RC-Queue Length (rc7QueueLength)"
vector 1422  large_network.switch_2.phy[2].shaper  rc8QueueLength:vector  ETV
attr interpolationmode  sample-hold
attr title  "RC-Queue Length (rc8QueueLength)"
vector 1423  large_network.switch_2.phy[2].shaper  rc9QueueLength:vector  ETV
attr interpolationmode  sample-hold
attr title  "RC-Queue Length (rc9QueueLength)"
vector 386  large_network.switch_2.phy[2].shaper  pcfQueueLength:vector  ETV
attr interpolationmode  sample-hold
attr title  "PCF-Queue Length, vector"
vector 387  large_network.switch_2.phy[2].shaper  ttQueueLength:vector  ETV
attr interpolationmode  sample-hold
attr title  "TT-Queue Length, vector"
vector 403  large_network.switch_2.phy[3].shaper  beQueueLength:vector  ETV
attr interpolationmode  sample-hold
attr title  "BE-Queue Length, vector"
vector 1424  large_network.switch_2.phy[3].shaper  rc0QueueLength:vector  ETV
attr interpolationmode  sample-hold
attr title  "RC-Queue Length (rc0QueueLength)"
vector 1425  large_network.switch_2.phy[3].shaper  rc1QueueLength:vector  ETV
attr interpolationmode  sample-hold
attr title  "RC-Queue Length (rc1QueueLength)"
vector 1426  large_network.switch_2.phy[3].shaper  rc2QueueLength:vector  ETV
attr interpolationmode  sample-hold
attr title  "RC-Queue Length (rc2QueueLength)"
vector 1427  large_network.switch_2.phy[3].shaper  rc3QueueLength:vector  ETV
attr interpolationmode  sample-hold
attr title  "RC-Queue Length (rc3QueueLength)"
vector 1428  large_network.switch_2.phy[3].shaper  rc4QueueLength:vector  ETV
attr interpolationmode  sample-hold
attr title  "RC-Queue Length (rc4QueueLength)"
vector 1429  large_network.switch_2.phy[3].shaper  rc5QueueLength:vector  ETV
attr interpolationmode  sample-hold
attr title  "RC-Queue Length (rc5QueueLength)"
vector 1430  large_network.switch_2.phy[3].shaper  rc6QueueLength:vector  ETV
attr interpolationmode  sample-hold
attr title  "RC-Queue Length (rc6QueueLength)"
vector 1431  large_network.switch_2.phy[3].shaper  rc7QueueLength:vector  ETV
attr interpolationmode  sample-hold
attr title  "RC-Queue Length (rc7QueueLength)"
vector 1432  large_network.switch_2.phy[3].shaper  rc8QueueLength:vector  ETV
attr interpolationmode  sample-hold
attr title  "RC-Queue Length (rc8QueueLength)"
vector 1433  large_network.switch_2.phy[3].shaper  rc9QueueLength:vector  ETV
attr interpolationmode  sample-hold
attr title  "RC-Queue Length (rc9QueueLength)"
vector 404  large_network.switch_2.phy[3].shaper  pcfQueueLength:vector  ETV
attr interpolationmode  sample-hold
attr title  "PCF-Queue Length, vector"
vector 405  large_network.switch_2.phy[3].shaper  ttQueueLength:vector  ETV
attr interpolationmode  sample-hold
attr title  "TT-Queue Length, vector"
vector 421  large_network.switch_2.phy[4].shaper  beQueueLength:vector  ETV
attr interpolationmode  sample-hold
attr title  "BE-Queue Length, vector"
vector 1434  large_network.switch_2.phy[4].shaper  rc0QueueLength:vector  ETV
attr interpolationmode  sample-hold
attr title  "RC-Queue Length (rc0QueueLength)"
vector 1435  large_network.switch_2.phy[4].shaper  rc1QueueLength:vector  ETV
attr interpolationmode  sample-hold
attr title  "RC-Queue Length (rc1QueueLength)"
vector 1436  large_network.switch_2.phy[4].shaper  rc2QueueLength:vector  ETV
attr interpolationmode  sample-hold
attr title  "RC-Queue Length (rc2QueueLength)"
vector 1437  large_network.switch_2.phy[4].shaper  rc3QueueLength:vector  ETV
attr interpolationmode  sample-hold
attr title  "RC-Queue Length (rc3QueueLength)"
vector 1438  large_network.switch_2.phy[4].shaper  rc4QueueLength:vector  ETV
attr interpolationmode  sample-hold
attr title  "RC-Queue Length (rc4QueueLength)"
vector 1439  large_network.switch_2.phy[4].shaper  rc5QueueLength:vector  ETV
attr interpolationmode  sample-hold
attr title  "RC-Queue Length (rc5QueueLength)"
vector 1440  large_network.switch_2.phy[4].shaper  rc6QueueLength:vector  ETV
attr interpolationmode  sample-hold
attr title  "RC-Queue Length (rc6QueueLength)"
vector 1441  large_network.switch_2.phy[4].shaper  rc7QueueLength:vector  ETV
attr interpolationmode  sample-hold
attr title  "RC-Queue Length (rc7QueueLength)"
vector 1442  large_network.switch_2.phy[4].shaper  rc8QueueLength:vector  ETV
attr interpolationmode  sample-hold
attr title  "RC-Queue Length (rc8QueueLength)"
vector 1443  large_network.switch_2.phy[4].shaper  rc9QueueLength:vector  ETV
attr interpolationmode  sample-hold
attr title  "RC-Queue Length (rc9QueueLength)"
vector 422  large_network.switch_2.phy[4].shaper  pcfQueueLength:vector  ETV
attr interpolationmode  sample-hold
attr title  "PCF-Queue Length, vector"
vector 423  large_network.switch_2.phy[4].shaper  ttQueueLength:vector  ETV
attr interpolationmode  sample-hold
attr title  "TT-Queue Length, vector"
vector 538  large_network.switch_3.phy[0].shaper  beQueueLength:vector  ETV
attr interpolationmode  sample-hold
attr title  "BE-Queue Length, vector"
vector 1444  large_network.switch_3.phy[0].shaper  rc0QueueLength:vector  ETV
attr interpolationmode  sample-hold
attr title  "RC-Queue Length (rc0QueueLength)"
vector 1445  large_network.switch_3.phy[0].shaper  rc1QueueLength:vector  ETV
attr interpolationmode  sample-hold
attr title  "RC-Queue Length (rc1QueueLength)"
vector 1446  large_network.switch_3.phy[0].shaper  rc2QueueLength:vector  ETV
attr interpolationmode  sample-hold
attr title  "RC-Queue Length (rc2QueueLength)"
vector 1447  large_network.switch_3.phy[0].shaper  rc3QueueLength:vector  ETV
attr interpolationmode  sample-hold
attr title  "RC-Queue Length (rc3QueueLength)"
vector 1448  large_network.switch_3.phy[0].shaper  rc4QueueLength:vector  ETV
attr interpolationmode  sample-hold
attr title  "RC-Queue Length (rc4QueueLength)"
vector 1449  large_network.switch_3.phy[0].shaper  rc5QueueLength:vector  ETV
attr interpolationmode  sample-hold
attr title  "RC-Queue Length (rc5QueueLength)"
vector 1450  large_network.switch_3.phy[0].shaper  rc6QueueLength:vector  ETV
attr interpolationmode  sample-hold
attr title  "RC-Queue Length (rc6QueueLength)"
vector 1451  large_network.switch_3.phy[0].shaper  rc7QueueLength:vector  ETV
attr interpolationmode  sample-hold
attr title  "RC-Queue Length (rc7QueueLength)"
vector 1452  large_network.switch_3.phy[0].shaper  rc8QueueLength:vector  ETV
attr interpolationmode  sample-hold
attr title  "RC-Queue Length (rc8QueueLength)"
vector 1453  large_network.switch_3.phy[0].shaper  rc9QueueLength:vector  ETV
attr interpolationmode  sample-hold
attr title  "RC-Queue Length (rc9QueueLength)"
vector 539  large_network.switch_3.phy[0].shaper  pcfQueueLength:vector  ETV
attr interpolationmode  sample-hold
attr title  "PCF-Queue Length, vector"
vector 540  large_network.switch_3.phy[0].shaper  ttQueueLength:vector  ETV
attr interpolationmode  sample-hold
attr title  "TT-Queue Length, vector"
vector 556  large_network.switch_3.phy[1].shaper  beQueueLength:vector  ETV
attr interpolationmode  sample-hold
attr title  "BE-Queue Length, vector"
vector 1454  large_network.switch_3.phy[1].shaper  rc0QueueLength:vector  ETV
attr interpolationmode  sample-hold
attr title  "RC-Queue Length (rc0QueueLength)"
vector 1455  large_network.switch_3.phy[1].shaper  rc1QueueLength:vector  ETV
attr interpolationmode  sample-hold
attr title  "RC-Queue Length (rc1QueueLength)"
vector 1456  large_network.switch_3.phy[1].shaper  rc2QueueLength:vector  ETV
attr interpolationmode  sample-hold
attr title  "RC-Queue Length (rc2QueueLength)"
vector 1457  large_network.switch_3.phy[1].shaper  rc3QueueLength:vector  ETV
attr interpolationmode  sample-hold
attr title  "RC-Queue Length (rc3QueueLength)"
vector 1458  large_network.switch_3.phy[1].shaper  rc4QueueLength:vector  ETV
attr interpolationmode  sample-hold
attr title  "RC-Queue Length (rc4QueueLength)"
vector 1459  large_network.switch_3.phy[1].shaper  rc5QueueLength:vector  ETV
attr interpolationmode  sample-hold
attr title  "RC-Queue Length (rc5QueueLength)"
vector 1460  large_network.switch_3.phy[1].shaper  rc6QueueLength:vector  ETV
attr interpolationmode  sample-hold
attr title  "RC-Queue Length (rc6QueueLength)"
vector 1461  large_network.switch_3.phy[1].shaper  rc7QueueLength:vector  ETV
attr interpolationmode  sample-hold
attr title  "RC-Queue Length (rc7QueueLength)"
vector 1462  large_network.switch_3.phy[1].shaper  rc8QueueLength:vector  ETV
attr interpolationmode  sample-hold
attr title  "RC-Queue Length (rc8QueueLength)"
vector 1463  large_network.switch_3.phy[1].shaper  rc9QueueLength:vector  ETV
attr interpolationmode  sample-hold
attr title  "RC-Queue Length (rc9QueueLength)"
vector 557  large_network.switch_3.phy[1].shaper  pcfQueueLength:vector  ETV
attr interpolationmode  sample-hold
attr title  "PCF-Queue Length, vector"
vector 558  large_network.switch_3.phy[1].shaper  ttQueueLength:vector  ETV
attr interpolationmode  sample-hold
attr title  "TT-Queue Length, vector"
vector 574  large_network.switch_3.phy[2].shaper  beQueueLength:vector  ETV
attr interpolationmode  sample-hold
attr title  "BE-Queue Length, vector"
vector 1464  large_network.switch_3.phy[2].shaper  rc0QueueLength:vector  ETV
attr interpolationmode  sample-hold
attr title  "RC-Queue Length (rc0QueueLength)"
vector 1465  large_network.switch_3.phy[2].shaper  rc1QueueLength:vector  ETV
attr interpolationmode  sample-hold
attr title  "RC-Queue Length (rc1QueueLength)"
vector 1466  large_network.switch_3.phy[2].shaper  rc2QueueLength:vector  ETV
attr interpolationmode  sample-hold
attr title  "RC-Queue Length (rc2QueueLength)"
vector 1467  large_network.switch_3.phy[2].shaper  rc3QueueLength:vector  ETV
attr interpolationmode  sample-hold
attr title  "RC-Queue Length (rc3QueueLength)"
vector 1468  large_network.switch_3.phy[2].shaper  rc4QueueLength:vector  ETV
attr interpolationmode  sample-hold
attr title  "RC-Queue Length (rc4QueueLength)"
vector 1469  large_network.switch_3.phy[2].shaper  rc5QueueLength:vector  ETV
attr interpolationmode  sample-hold
attr title  "RC-Queue Length (rc5QueueLength)"
vector 1470  large_network.switch_3.phy[2].shaper  rc6QueueLength:vector  ETV
attr interpolationmode  sample-hold
attr title  "RC-Queue Length (rc6QueueLength)"
vector 1471  large_network.switch_3.phy[2].shaper  rc7QueueLength:vector  ETV
attr interpolationmode  sample-hold
attr title  "RC-Queue Length (rc7QueueLength)"
vector 1472  large_network.switch_3.phy[2].shaper  rc8QueueLength:vector  ETV
attr interpolationmode  sample-hold
attr title  "RC-Queue Length (rc8QueueLength)"
vector 1473  large_network.switch_3.phy[2].shaper  rc9QueueLength:vector  ETV
attr interpolationmode  sample-hold
attr title  "RC-Queue Length (rc9QueueLength)"
vector 575  large_network.switch_3.phy[2].shaper  pcfQueueLength:vector  ETV
attr interpolationmode  sample-hold
attr title  "PCF-Queue Length, vector"
vector 576  large_network.switch_3.phy[2].shaper  ttQueueLength:vector  ETV
attr interpolationmode  sample-hold
attr title  "TT-Queue Length, vector"
vector 592  large_network.switch_3.phy[3].shaper  beQueueLength:vector  ETV
attr interpolationmode  sample-hold
attr title  "BE-Queue Length, vector"
vector 1474  large_network.switch_3.phy[3].shaper  rc0QueueLength:vector  ETV
attr interpolationmode  sample-hold
attr title  "RC-Queue Length (rc0QueueLength)"
vector 1475  large_network.switch_3.phy[3].shaper  rc1QueueLength:vector  ETV
attr interpolationmode  sample-hold
attr title  "RC-Queue Length (rc1QueueLength)"
vector 1476  large_network.switch_3.phy[3].shaper  rc2QueueLength:vector  ETV
attr interpolationmode  sample-hold
attr title  "RC-Queue Length (rc2QueueLength)"
vector 1477  large_network.switch_3.phy[3].shaper  rc3QueueLength:vector  ETV
attr interpolationmode  sample-hold
attr title  "RC-Queue Length (rc3QueueLength)"
vector 1478  large_network.switch_3.phy[3].shaper  rc4QueueLength:vector  ETV
attr interpolationmode  sample-hold
attr title  "RC-Queue Length (rc4QueueLength)"
vector 1479  large_network.switch_3.phy[3].shaper  rc5QueueLength:vector  ETV
attr interpolationmode  sample-hold
attr title  "RC-Queue Length (rc5QueueLength)"
vector 1480  large_network.switch_3.phy[3].shaper  rc6QueueLength:vector  ETV
attr interpolationmode  sample-hold
attr title  "RC-Queue Length (rc6QueueLength)"
vector 1481  large_network.switch_3.phy[3].shaper  rc7QueueLength:vector  ETV
attr interpolationmode  sample-hold
attr title  "RC-Queue Length (rc7QueueLength)"
vector 1482  large_network.switch_3.phy[3].shaper  rc8QueueLength:vector  ETV
attr interpolationmode  sample-hold
attr title  "RC-Queue Length (rc8QueueLength)"
vector 1483  large_network.switch_3.phy[3].shaper  rc9QueueLength:vector  ETV
attr interpolationmode  sample-hold
attr title  "RC-Queue Length (rc9QueueLength)"
vector 593  large_network.switch_3.phy[3].shaper  pcfQueueLength:vector  ETV
attr interpolationmode  sample-hold
attr title  "PCF-Queue Length, vector"
vector 594  large_network.switch_3.phy[3].shaper  ttQueueLength:vector  ETV
attr interpolationmode  sample-hold
attr title  "TT-Queue Length, vector"
vector 649  large_network.node_1.phy[0].shaper  beQueueLength:vector  ETV
attr interpolationmode  sample-hold
attr title  "BE-Queue Length, vector"
vector 1484  large_network.node_1.phy[0].shaper  rc0QueueLength:vector  ETV
attr interpolationmode  sample-hold
attr title  "RC-Queue Length (rc0QueueLength)"
vector 1485  large_network.node_1.phy[0].shaper  rc1QueueLength:vector  ETV
attr interpolationmode  sample-hold
attr title  "RC-Queue Length (rc1QueueLength)"
vector 1486  large_network.node_1.phy[0].shaper  rc2QueueLength:vector  ETV
attr interpolationmode  sample-hold
attr title  "RC-Queue Length (rc2QueueLength)"